<?xml version="1.0" encoding="UTF-8"?>

<!-- generated on 2025-05-03 21:42:13 by Eclipse SUMO sumo Version 1.22.0
<sumoConfiguration xmlns:xsi="http://www.w3.org/2001/XMLSchema-instance" xsi:noNamespaceSchemaLocation="http://sumo.dlr.de/xsd/sumoConfiguration.xsd">

    <input>
        <net-file value="C:/Users/Pushp Raj Choudhary/2025-03-14-16-24-53/osm.net.xml.gz"/>
        <route-files value="C:/Users/Pushp Raj Choudhary/2025-03-14-16-24-53/osm.passenger.trips.xml"/>
        <additional-files value="C:/Users/Pushp Raj Choudhary/2025-03-14-16-24-53/osm.poly.xml.gz"/>
    </input>

    <output>
        <emission-output value="C:/Users/Pushp Raj Choudhary/2025-03-14-16-24-53/emission.xml"/>
        <fcd-output value="C:/Users/Pushp Raj Choudhary/2025-03-14-16-24-53/fcd_output.xml"/>
        <tripinfo-output value="C:/Users/Pushp Raj Choudhary/2025-03-14-16-24-53/tripinfo.xml"/>
    </output>

    <time>
        <begin value="0"/>
        <end value="3700"/>
    </time>

    <processing>
        <ignore-route-errors value="true"/>
        <scale value="20"/>
        <tls.actuated.jam-threshold value="30"/>
    </processing>

    <routing>
        <device.rerouting.adaptation-steps value="18"/>
        <device.rerouting.adaptation-interval value="10"/>
    </routing>

    <report>
        <verbose value="true"/>
        <duration-log.statistics value="true"/>
        <no-step-log value="true"/>
    </report>

    <traci_server>
        <remote-port value="55906"/>
    </traci_server>

    <gui_only>
        <gui-settings-file value="C:/Users/Pushp Raj Choudhary/2025-03-14-16-24-53/osm.view.xml"/>
    </gui_only>

</sumoConfiguration>
-->

<tripinfos xmlns:xsi="http://www.w3.org/2001/XMLSchema-instance" xsi:noNamespaceSchemaLocation="http://sumo.dlr.de/xsd/tripinfo_file.xsd">
    <tripinfo id="veh0" depart="0.00" departLane="1288011209_1" departPos="5.10" departSpeed="0.00" departDelay="0.00" arrival="55.00" arrivalLane="-101966393#1_0" arrivalPos="31.09" arrivalSpeed="12.95" duration="55.00" routeLength="650.14" waitingTime="0.00" waitingCount="0" stopTime="0.00" timeLoss="17.16" rerouteNo="1" devices="tripinfo_veh0 routing_veh0 emissions_veh0 fcd_veh0" vType="veh_passenger" speedFactor="1.06" vaporized="">
        <emissions CO_abs="4606.449082" CO2_abs="290706.232654" HC_abs="27.954267" PMx_abs="5.843984" NOx_abs="122.769614" fuel_abs="92721.268192" electricity_abs="0"/>
    </tripinfo>
    <tripinfo id="veh0.1" depart="3.00" departLane="1288011209_1" departPos="5.10" departSpeed="0.00" departDelay="3.00" arrival="60.00" arrivalLane="-101966393#1_0" arrivalPos="31.09" arrivalSpeed="11.34" duration="57.00" routeLength="650.14" waitingTime="0.00" waitingCount="0" stopTime="0.00" timeLoss="14.72" rerouteNo="1" devices="tripinfo_veh0.1 routing_veh0.1 emissions_veh0.1 fcd_veh0.1" vType="veh_passenger" speedFactor="0.94" vaporized="">
        <emissions CO_abs="4007.617367" CO2_abs="253920.973073" HC_abs="24.223453" PMx_abs="4.915520" NOx_abs="105.983318" fuel_abs="80988.741600" electricity_abs="0"/>
    </tripinfo>
    <tripinfo id="veh0.2" depart="6.00" departLane="1288011209_1" departPos="5.10" departSpeed="0.00" departDelay="6.00" arrival="63.00" arrivalLane="-101966393#1_0" arrivalPos="31.09" arrivalSpeed="13.09" duration="57.00" routeLength="650.14" waitingTime="0.00" waitingCount="0" stopTime="0.00" timeLoss="17.37" rerouteNo="1" devices="tripinfo_veh0.2 routing_veh0.2 emissions_veh0.2 fcd_veh0.2" vType="veh_passenger" speedFactor="1.01" vaporized="">
        <emissions CO_abs="4744.173052" CO2_abs="284731.898602" HC_abs="28.363173" PMx_abs="5.754676" NOx_abs="120.673585" fuel_abs="90815.823860" electricity_abs="0"/>
    </tripinfo>
    <tripinfo id="veh0.3" depart="9.00" departLane="1288011209_1" departPos="5.10" departSpeed="0.00" departDelay="9.00" arrival="67.00" arrivalLane="-101966393#1_0" arrivalPos="31.09" arrivalSpeed="12.40" duration="58.00" routeLength="650.14" waitingTime="0.00" waitingCount="0" stopTime="0.00" timeLoss="20.30" rerouteNo="1" devices="tripinfo_veh0.3 routing_veh0.3 emissions_veh0.3 fcd_veh0.3" vType="veh_passenger" speedFactor="1.08" vaporized="">
        <emissions CO_abs="4605.930971" CO2_abs="271381.516090" HC_abs="27.433017" PMx_abs="5.497314" NOx_abs="115.295825" fuel_abs="86557.705451" electricity_abs="0"/>
    </tripinfo>
    <tripinfo id="veh0.4" depart="12.00" departLane="1288011209_1" departPos="5.10" departSpeed="0.00" departDelay="12.00" arrival="71.00" arrivalLane="-101966393#1_0" arrivalPos="31.09" arrivalSpeed="14.05" duration="59.00" routeLength="650.14" waitingTime="0.00" waitingCount="0" stopTime="0.00" timeLoss="19.75" rerouteNo="1" devices="tripinfo_veh0.4 routing_veh0.4 emissions_veh0.4 fcd_veh0.4" vType="veh_passenger" speedFactor="1.03" vaporized="">
        <emissions CO_abs="4886.481858" CO2_abs="291865.181438" HC_abs="29.181162" PMx_abs="5.936696" NOx_abs="124.089382" fuel_abs="93090.963920" electricity_abs="0"/>
    </tripinfo>
    <tripinfo id="veh0.5" depart="15.00" departLane="1288011209_1" departPos="5.10" departSpeed="0.00" departDelay="15.00" arrival="80.00" arrivalLane="-101966393#1_0" arrivalPos="31.09" arrivalSpeed="10.54" duration="65.00" routeLength="650.14" waitingTime="0.00" waitingCount="0" stopTime="0.00" timeLoss="15.66" rerouteNo="1" devices="tripinfo_veh0.5 routing_veh0.5 emissions_veh0.5 fcd_veh0.5" vType="veh_passenger" speedFactor="0.83" vaporized="">
        <emissions CO_abs="4396.162281" CO2_abs="255874.948733" HC_abs="25.952854" PMx_abs="4.819886" NOx_abs="106.563866" fuel_abs="81612.286951" electricity_abs="0"/>
    </tripinfo>
    <tripinfo id="veh0.6" depart="18.00" departLane="1288011209_1" departPos="5.10" departSpeed="0.00" departDelay="18.00" arrival="81.00" arrivalLane="-101966393#1_0" arrivalPos="31.09" arrivalSpeed="12.00" duration="63.00" routeLength="650.14" waitingTime="0.00" waitingCount="0" stopTime="0.00" timeLoss="24.53" rerouteNo="1" devices="tripinfo_veh0.6 routing_veh0.6 emissions_veh0.6 fcd_veh0.6" vType="veh_passenger" speedFactor="1.05" vaporized="">
        <emissions CO_abs="4264.696059" CO2_abs="254397.510553" HC_abs="25.399740" PMx_abs="4.846613" NOx_abs="105.981741" fuel_abs="81140.946907" electricity_abs="0"/>
    </tripinfo>
    <tripinfo id="veh5" depart="44.00" departLane="-1178016910_0" departPos="5.10" departSpeed="14.37" departDelay="0.27" arrival="84.00" arrivalLane="102688631#3_0" arrivalPos="24.54" arrivalSpeed="11.40" duration="40.00" routeLength="420.90" waitingTime="0.00" waitingCount="0" stopTime="0.00" timeLoss="3.96" rerouteNo="1" devices="tripinfo_veh5 routing_veh5 emissions_veh5 fcd_veh5" vType="veh_passenger" speedFactor="1.03" vaporized="">
        <emissions CO_abs="1114.066606" CO2_abs="92168.569914" HC_abs="7.180866" PMx_abs="1.267587" NOx_abs="35.170529" fuel_abs="29397.774357" electricity_abs="0"/>
    </tripinfo>
    <tripinfo id="veh0.7" depart="21.00" departLane="1288011209_1" departPos="5.10" departSpeed="0.00" departDelay="21.00" arrival="85.00" arrivalLane="-101966393#1_0" arrivalPos="31.09" arrivalSpeed="11.99" duration="64.00" routeLength="650.14" waitingTime="0.00" waitingCount="0" stopTime="0.00" timeLoss="18.08" rerouteNo="1" devices="tripinfo_veh0.7 routing_veh0.7 emissions_veh0.7 fcd_veh0.7" vType="veh_passenger" speedFactor="0.89" vaporized="">
        <emissions CO_abs="4149.800389" CO2_abs="251831.817975" HC_abs="24.809929" PMx_abs="4.794069" NOx_abs="104.910920" fuel_abs="80322.581291" electricity_abs="0"/>
    </tripinfo>
    <tripinfo id="veh5.1" depart="45.00" departLane="-1178016910_0" departPos="5.10" departSpeed="10.59" departDelay="1.27" arrival="88.00" arrivalLane="102688631#3_0" arrivalPos="24.54" arrivalSpeed="11.08" duration="43.00" routeLength="420.90" waitingTime="0.00" waitingCount="0" stopTime="0.00" timeLoss="5.72" rerouteNo="1" devices="tripinfo_veh5.1 routing_veh5.1 emissions_veh5.1 fcd_veh5.1" vType="veh_passenger" speedFactor="1.00" vaporized="">
        <emissions CO_abs="1640.989076" CO2_abs="116899.738886" HC_abs="10.159295" PMx_abs="1.738221" NOx_abs="45.696796" fuel_abs="37285.921804" electricity_abs="0"/>
    </tripinfo>
    <tripinfo id="veh5.2" depart="46.00" departLane="-1178016910_0" departPos="5.10" departSpeed="6.37" departDelay="2.27" arrival="91.00" arrivalLane="102688631#3_0" arrivalPos="24.54" arrivalSpeed="10.42" duration="45.00" routeLength="420.90" waitingTime="0.00" waitingCount="0" stopTime="0.00" timeLoss="8.41" rerouteNo="1" devices="tripinfo_veh5.2 routing_veh5.2 emissions_veh5.2 fcd_veh5.2" vType="veh_passenger" speedFactor="1.02" vaporized="">
        <emissions CO_abs="1965.350517" CO2_abs="125601.037084" HC_abs="11.851133" PMx_abs="2.035943" NOx_abs="50.419055" fuel_abs="40061.172500" electricity_abs="0"/>
    </tripinfo>
    <tripinfo id="veh1" depart="9.00" departLane="-52155743#2_0" departPos="5.10" departSpeed="0.00" departDelay="0.25" arrival="118.00" arrivalLane="-1124102312_0" arrivalPos="10.76" arrivalSpeed="10.73" duration="109.00" routeLength="1292.35" waitingTime="0.00" waitingCount="0" stopTime="0.00" timeLoss="28.98" rerouteNo="1" devices="tripinfo_veh1 routing_veh1 emissions_veh1 fcd_veh1" vType="veh_passenger" speedFactor="1.02" vaporized="">
        <emissions CO_abs="7578.758075" CO2_abs="496025.036918" HC_abs="46.355890" PMx_abs="9.606414" NOx_abs="206.503282" fuel_abs="158208.358890" electricity_abs="0"/>
    </tripinfo>
    <tripinfo id="veh1.1" depart="12.00" departLane="-52155743#2_0" departPos="5.10" departSpeed="0.00" departDelay="3.25" arrival="123.00" arrivalLane="-1124102312_0" arrivalPos="10.76" arrivalSpeed="10.46" duration="111.00" routeLength="1292.35" waitingTime="0.00" waitingCount="0" stopTime="0.00" timeLoss="30.92" rerouteNo="1" devices="tripinfo_veh1.1 routing_veh1.1 emissions_veh1.1 fcd_veh1.1" vType="veh_passenger" speedFactor="1.01" vaporized="">
        <emissions CO_abs="7325.423491" CO2_abs="468193.465665" HC_abs="44.486944" PMx_abs="9.096739" NOx_abs="195.816227" fuel_abs="149331.409740" electricity_abs="0"/>
    </tripinfo>
    <tripinfo id="veh1.2" depart="15.00" departLane="-52155743#2_0" departPos="5.10" departSpeed="0.00" departDelay="6.25" arrival="128.00" arrivalLane="-1124102312_0" arrivalPos="10.76" arrivalSpeed="10.57" duration="113.00" routeLength="1292.35" waitingTime="0.00" waitingCount="0" stopTime="0.00" timeLoss="29.46" rerouteNo="1" devices="tripinfo_veh1.2 routing_veh1.2 emissions_veh1.2 fcd_veh1.2" vType="veh_passenger" speedFactor="0.97" vaporized="">
        <emissions CO_abs="7166.145378" CO2_abs="458182.438105" HC_abs="43.541868" PMx_abs="8.745314" NOx_abs="190.560850" fuel_abs="146138.564273" electricity_abs="0"/>
    </tripinfo>
    <tripinfo id="veh1.3" depart="18.00" departLane="-52155743#2_0" departPos="5.10" departSpeed="0.00" departDelay="9.25" arrival="138.00" arrivalLane="-1124102312_0" arrivalPos="10.76" arrivalSpeed="9.80" duration="120.00" routeLength="1292.35" waitingTime="0.00" waitingCount="0" stopTime="0.00" timeLoss="28.14" rerouteNo="1" devices="tripinfo_veh1.3 routing_veh1.3 emissions_veh1.3 fcd_veh1.3" vType="veh_passenger" speedFactor="0.89" vaporized="">
        <emissions CO_abs="7409.040995" CO2_abs="458418.569081" HC_abs="44.611612" PMx_abs="8.662733" NOx_abs="190.445784" fuel_abs="146214.101054" electricity_abs="0"/>
    </tripinfo>
    <tripinfo id="veh1.4" depart="21.00" departLane="-52155743#2_0" departPos="5.10" departSpeed="0.00" departDelay="12.25" arrival="148.00" arrivalLane="-1124102312_0" arrivalPos="10.76" arrivalSpeed="8.92" duration="127.00" routeLength="1292.35" waitingTime="0.00" waitingCount="0" stopTime="0.00" timeLoss="27.78" rerouteNo="1" devices="tripinfo_veh1.4 routing_veh1.4 emissions_veh1.4 fcd_veh1.4" vType="veh_passenger" speedFactor="0.83" vaporized="">
        <emissions CO_abs="7465.368209" CO2_abs="442611.872427" HC_abs="44.451490" PMx_abs="8.406593" NOx_abs="184.615304" fuel_abs="141172.606628" electricity_abs="0"/>
    </tripinfo>
    <tripinfo id="veh1.5" depart="24.00" departLane="-52155743#2_0" departPos="5.10" departSpeed="0.00" departDelay="15.25" arrival="150.00" arrivalLane="-1124102312_0" arrivalPos="10.76" arrivalSpeed="8.72" duration="126.00" routeLength="1292.35" waitingTime="0.00" waitingCount="0" stopTime="0.00" timeLoss="31.95" rerouteNo="1" devices="tripinfo_veh1.5 routing_veh1.5 emissions_veh1.5 fcd_veh1.5" vType="veh_passenger" speedFactor="0.87" vaporized="">
        <emissions CO_abs="7746.847282" CO2_abs="462121.092744" HC_abs="46.147496" PMx_abs="8.668394" NOx_abs="191.954766" fuel_abs="147395.234143" electricity_abs="0"/>
    </tripinfo>
    <tripinfo id="veh1.6" depart="27.00" departLane="-52155743#2_0" departPos="5.10" departSpeed="0.00" departDelay="18.25" arrival="152.00" arrivalLane="-1124102312_0" arrivalPos="10.76" arrivalSpeed="10.06" duration="125.00" routeLength="1292.35" waitingTime="0.00" waitingCount="0" stopTime="0.00" timeLoss="37.10" rerouteNo="1" devices="tripinfo_veh1.6 routing_veh1.6 emissions_veh1.6 fcd_veh1.6" vType="veh_passenger" speedFactor="0.92" vaporized="">
        <emissions CO_abs="7641.436218" CO2_abs="463368.592538" HC_abs="45.801847" PMx_abs="8.922530" NOx_abs="194.020708" fuel_abs="147792.798808" electricity_abs="0"/>
    </tripinfo>
    <tripinfo id="veh0.8" depart="24.00" departLane="1288011209_1" departPos="5.10" departSpeed="0.00" departDelay="24.00" arrival="153.00" arrivalLane="-101966393#1_0" arrivalPos="31.09" arrivalSpeed="11.71" duration="129.00" routeLength="650.14" waitingTime="64.00" waitingCount="1" stopTime="0.00" timeLoss="86.50" rerouteNo="1" devices="tripinfo_veh0.8 routing_veh0.8 emissions_veh0.8 fcd_veh0.8" vType="veh_passenger" speedFactor="0.94" vaporized="">
        <emissions CO_abs="15370.173747" CO2_abs="441275.276232" HC_abs="80.438041" PMx_abs="9.571572" NOx_abs="192.138367" fuel_abs="140749.958967" electricity_abs="0"/>
    </tripinfo>
    <tripinfo id="veh1.7" depart="30.00" departLane="-52155743#2_0" departPos="5.10" departSpeed="0.00" departDelay="21.25" arrival="154.00" arrivalLane="-1124102312_0" arrivalPos="10.76" arrivalSpeed="9.54" duration="124.00" routeLength="1292.35" waitingTime="0.00" waitingCount="0" stopTime="0.00" timeLoss="38.08" rerouteNo="1" devices="tripinfo_veh1.7 routing_veh1.7 emissions_veh1.7 fcd_veh1.7" vType="veh_passenger" speedFactor="0.95" vaporized="">
        <emissions CO_abs="7799.900719" CO2_abs="469959.944023" HC_abs="46.720033" PMx_abs="9.149016" NOx_abs="197.235288" fuel_abs="149895.066131" electricity_abs="0"/>
    </tripinfo>
    <tripinfo id="veh1.8" depart="33.00" departLane="-52155743#2_0" departPos="5.10" departSpeed="0.00" departDelay="24.25" arrival="156.00" arrivalLane="-1124102312_0" arrivalPos="10.76" arrivalSpeed="12.54" duration="123.00" routeLength="1292.35" waitingTime="0.00" waitingCount="0" stopTime="0.00" timeLoss="51.75" rerouteNo="1" devices="tripinfo_veh1.8 routing_veh1.8 emissions_veh1.8 fcd_veh1.8" vType="veh_passenger" speedFactor="1.13" vaporized="">
        <emissions CO_abs="7553.663921" CO2_abs="458535.999993" HC_abs="45.317906" PMx_abs="8.901921" NOx_abs="192.641503" fuel_abs="146251.330925" electricity_abs="0"/>
    </tripinfo>
    <tripinfo id="veh0.9" depart="27.00" departLane="1288011209_1" departPos="5.10" departSpeed="0.00" departDelay="27.00" arrival="158.00" arrivalLane="-101966393#1_0" arrivalPos="31.09" arrivalSpeed="10.66" duration="131.00" routeLength="650.14" waitingTime="63.00" waitingCount="1" stopTime="0.00" timeLoss="83.87" rerouteNo="1" devices="tripinfo_veh0.9 routing_veh0.9 emissions_veh0.9 fcd_veh0.9" vType="veh_passenger" speedFactor="0.86" vaporized="">
        <emissions CO_abs="14970.780674" CO2_abs="415678.280375" HC_abs="77.870516" PMx_abs="8.923570" NOx_abs="180.380560" fuel_abs="132585.891611" electricity_abs="0"/>
    </tripinfo>
    <tripinfo id="veh1.9" depart="36.00" departLane="-52155743#2_0" departPos="5.10" departSpeed="0.00" departDelay="27.25" arrival="158.00" arrivalLane="-1124102312_0" arrivalPos="10.76" arrivalSpeed="9.10" duration="122.00" routeLength="1292.35" waitingTime="0.00" waitingCount="0" stopTime="0.00" timeLoss="35.68" rerouteNo="1" devices="tripinfo_veh1.9 routing_veh1.9 emissions_veh1.9 fcd_veh1.9" vType="veh_passenger" speedFactor="0.93" vaporized="">
        <emissions CO_abs="7502.051429" CO2_abs="453134.660364" HC_abs="44.921208" PMx_abs="8.756682" NOx_abs="189.735706" fuel_abs="144528.643536" electricity_abs="0"/>
    </tripinfo>
    <tripinfo id="veh5.3" depart="48.00" departLane="-1178016910_0" departPos="5.10" departSpeed="6.74" departDelay="4.27" arrival="158.00" arrivalLane="102688631#3_0" arrivalPos="24.54" arrivalSpeed="9.98" duration="110.00" routeLength="420.90" waitingTime="59.00" waitingCount="1" stopTime="0.00" timeLoss="71.26" rerouteNo="1" devices="tripinfo_veh5.3 routing_veh5.3 emissions_veh5.3 fcd_veh5.3" vType="veh_passenger" speedFactor="0.97" vaporized="">
        <emissions CO_abs="12163.743159" CO2_abs="279536.167906" HC_abs="61.916116" PMx_abs="6.005946" NOx_abs="121.879213" fuel_abs="89162.925912" electricity_abs="0"/>
    </tripinfo>
    <tripinfo id="veh12" depart="105.00" departLane="562694503#0_0" departPos="5.10" departSpeed="0.00" departDelay="0.05" arrival="158.00" arrivalLane="101757273#0_0" arrivalPos="56.59" arrivalSpeed="16.89" duration="53.00" routeLength="575.05" waitingTime="0.00" waitingCount="0" stopTime="0.00" timeLoss="18.96" rerouteNo="1" devices="tripinfo_veh12 routing_veh12 emissions_veh12 fcd_veh12" vType="veh_passenger" speedFactor="1.00" vaporized="">
        <emissions CO_abs="4539.931617" CO2_abs="273395.461273" HC_abs="27.199117" PMx_abs="5.556821" NOx_abs="116.492436" fuel_abs="87199.974851" electricity_abs="0"/>
    </tripinfo>
    <tripinfo id="veh0.10" depart="30.00" departLane="1288011209_1" departPos="5.10" departSpeed="0.00" departDelay="30.00" arrival="160.00" arrivalLane="-101966393#1_0" arrivalPos="31.09" arrivalSpeed="14.19" duration="130.00" routeLength="650.14" waitingTime="62.00" waitingCount="1" stopTime="0.00" timeLoss="92.93" rerouteNo="1" devices="tripinfo_veh0.10 routing_veh0.10 emissions_veh0.10 fcd_veh0.10" vType="veh_passenger" speedFactor="1.09" vaporized="">
        <emissions CO_abs="15341.863256" CO2_abs="447584.159029" HC_abs="80.441554" PMx_abs="9.757401" NOx_abs="195.234105" fuel_abs="142762.017516" electricity_abs="0"/>
    </tripinfo>
    <tripinfo id="veh1.10" depart="39.00" departLane="-52155743#2_0" departPos="5.10" departSpeed="0.00" departDelay="30.25" arrival="160.00" arrivalLane="-1124102312_0" arrivalPos="10.76" arrivalSpeed="11.85" duration="121.00" routeLength="1292.35" waitingTime="0.00" waitingCount="0" stopTime="0.00" timeLoss="52.17" rerouteNo="1" devices="tripinfo_veh1.10 routing_veh1.10 emissions_veh1.10 fcd_veh1.10" vType="veh_passenger" speedFactor="1.18" vaporized="">
        <emissions CO_abs="7563.684931" CO2_abs="457823.923499" HC_abs="45.350645" PMx_abs="8.897684" NOx_abs="192.218711" fuel_abs="146024.229262" electricity_abs="0"/>
    </tripinfo>
    <tripinfo id="veh5.4" depart="50.00" departLane="-1178016910_0" departPos="5.10" departSpeed="6.19" departDelay="6.27" arrival="160.00" arrivalLane="102688631#3_0" arrivalPos="24.54" arrivalSpeed="11.62" duration="110.00" routeLength="420.90" waitingTime="58.00" waitingCount="1" stopTime="0.00" timeLoss="76.99" rerouteNo="1" devices="tripinfo_veh5.4 routing_veh5.4 emissions_veh5.4 fcd_veh5.4" vType="veh_passenger" speedFactor="1.15" vaporized="">
        <emissions CO_abs="12367.981464" CO2_abs="296305.859202" HC_abs="63.247657" PMx_abs="6.333171" NOx_abs="128.964262" fuel_abs="94511.615678" electricity_abs="0"/>
    </tripinfo>
    <tripinfo id="veh3" depart="27.00" departLane="52087627#2_0" departPos="5.10" departSpeed="0.00" departDelay="0.76" arrival="161.00" arrivalLane="-101966494_0" arrivalPos="84.99" arrivalSpeed="13.54" duration="134.00" routeLength="823.23" waitingTime="54.00" waitingCount="1" stopTime="0.00" timeLoss="74.78" rerouteNo="1" devices="tripinfo_veh3 routing_veh3 emissions_veh3 fcd_veh3" vType="veh_passenger" speedFactor="1.03" vaporized="">
        <emissions CO_abs="13943.267746" CO2_abs="445113.010068" HC_abs="73.769482" PMx_abs="8.996987" NOx_abs="188.360175" fuel_abs="141973.854848" electricity_abs="0"/>
    </tripinfo>
    <tripinfo id="veh0.11" depart="33.00" departLane="1288011209_1" departPos="5.10" departSpeed="0.00" departDelay="33.00" arrival="162.00" arrivalLane="-101966393#1_0" arrivalPos="31.09" arrivalSpeed="13.76" duration="129.00" routeLength="650.14" waitingTime="60.00" waitingCount="1" stopTime="0.00" timeLoss="89.79" rerouteNo="1" devices="tripinfo_veh0.11 routing_veh0.11 emissions_veh0.11 fcd_veh0.11" vType="veh_passenger" speedFactor="1.03" vaporized="">
        <emissions CO_abs="15255.815452" CO2_abs="441240.603381" HC_abs="79.956788" PMx_abs="9.775740" NOx_abs="193.851903" fuel_abs="140738.564688" electricity_abs="0"/>
    </tripinfo>
    <tripinfo id="veh1.11" depart="42.00" departLane="-52155743#2_0" departPos="5.10" departSpeed="0.00" departDelay="33.25" arrival="162.00" arrivalLane="-1124102312_0" arrivalPos="10.76" arrivalSpeed="11.82" duration="120.00" routeLength="1292.35" waitingTime="0.00" waitingCount="0" stopTime="0.00" timeLoss="49.59" rerouteNo="1" devices="tripinfo_veh1.11 routing_veh1.11 emissions_veh1.11 fcd_veh1.11" vType="veh_passenger" speedFactor="1.15" vaporized="">
        <emissions CO_abs="7153.651251" CO2_abs="442391.274443" HC_abs="42.966643" PMx_abs="8.511141" NOx_abs="184.750927" fuel_abs="141101.957671" electricity_abs="0"/>
    </tripinfo>
    <tripinfo id="veh12.1" depart="108.00" departLane="562694503#0_0" departPos="5.10" departSpeed="0.00" departDelay="3.05" arrival="162.00" arrivalLane="101757273#0_0" arrivalPos="56.59" arrivalSpeed="17.86" duration="54.00" routeLength="575.05" waitingTime="0.00" waitingCount="0" stopTime="0.00" timeLoss="23.63" rerouteNo="1" devices="tripinfo_veh12.1 routing_veh12.1 emissions_veh12.1 fcd_veh12.1" vType="veh_passenger" speedFactor="1.15" vaporized="">
        <emissions CO_abs="4674.877641" CO2_abs="281191.055109" HC_abs="28.035485" PMx_abs="5.745340" NOx_abs="120.217770" fuel_abs="89686.352486" electricity_abs="0"/>
    </tripinfo>
    <tripinfo id="veh1.12" depart="45.00" departLane="-52155743#2_0" departPos="5.10" departSpeed="0.00" departDelay="36.25" arrival="164.00" arrivalLane="-1124102312_0" arrivalPos="10.76" arrivalSpeed="10.59" duration="119.00" routeLength="1292.35" waitingTime="0.00" waitingCount="0" stopTime="0.00" timeLoss="37.88" rerouteNo="1" devices="tripinfo_veh1.12 routing_veh1.12 emissions_veh1.12 fcd_veh1.12" vType="veh_passenger" speedFactor="1.01" vaporized="">
        <emissions CO_abs="7076.652105" CO2_abs="448615.178003" HC_abs="42.860920" PMx_abs="8.524569" NOx_abs="186.283761" fuel_abs="143087.131974" electricity_abs="0"/>
    </tripinfo>
    <tripinfo id="veh5.5" depart="52.00" departLane="-1178016910_0" departPos="5.10" departSpeed="6.66" departDelay="8.27" arrival="164.00" arrivalLane="102688631#3_0" arrivalPos="24.54" arrivalSpeed="10.69" duration="112.00" routeLength="420.90" waitingTime="58.00" waitingCount="1" stopTime="0.00" timeLoss="73.44" rerouteNo="1" devices="tripinfo_veh5.5 routing_veh5.5 emissions_veh5.5 fcd_veh5.5" vType="veh_passenger" speedFactor="0.98" vaporized="">
        <emissions CO_abs="12039.941356" CO2_abs="281193.614035" HC_abs="61.368587" PMx_abs="5.894566" NOx_abs="121.636526" fuel_abs="89691.641474" electricity_abs="0"/>
    </tripinfo>
    <tripinfo id="veh0.12" depart="36.00" departLane="1288011209_1" departPos="5.10" departSpeed="0.00" departDelay="36.00" arrival="165.00" arrivalLane="-101966393#1_0" arrivalPos="31.09" arrivalSpeed="13.16" duration="129.00" routeLength="650.14" waitingTime="59.00" waitingCount="1" stopTime="0.00" timeLoss="90.34" rerouteNo="1" devices="tripinfo_veh0.12 routing_veh0.12 emissions_veh0.12 fcd_veh0.12" vType="veh_passenger" speedFactor="1.05" vaporized="">
        <emissions CO_abs="14996.493180" CO2_abs="433246.298178" HC_abs="78.547386" PMx_abs="9.399803" NOx_abs="188.927186" fuel_abs="138188.942323" electricity_abs="0"/>
    </tripinfo>
    <tripinfo id="veh1.13" depart="48.00" departLane="-52155743#2_0" departPos="5.10" departSpeed="0.00" departDelay="39.25" arrival="165.00" arrivalLane="-1124102312_0" arrivalPos="10.76" arrivalSpeed="12.62" duration="117.00" routeLength="1292.35" waitingTime="0.00" waitingCount="0" stopTime="0.00" timeLoss="47.82" rerouteNo="1" devices="tripinfo_veh1.13 routing_veh1.13 emissions_veh1.13 fcd_veh1.13" vType="veh_passenger" speedFactor="1.17" vaporized="">
        <emissions CO_abs="7587.972255" CO2_abs="461381.680133" HC_abs="45.576125" PMx_abs="9.159225" NOx_abs="194.945063" fuel_abs="147158.745397" electricity_abs="0"/>
    </tripinfo>
    <tripinfo id="veh3.1" depart="30.00" departLane="52087627#2_0" departPos="5.10" departSpeed="0.00" departDelay="3.76" arrival="165.00" arrivalLane="-101966494_0" arrivalPos="84.99" arrivalSpeed="12.13" duration="135.00" routeLength="823.23" waitingTime="48.00" waitingCount="1" stopTime="0.00" timeLoss="70.75" rerouteNo="1" devices="tripinfo_veh3.1 routing_veh3.1 emissions_veh3.1 fcd_veh3.1" vType="veh_passenger" speedFactor="0.96" vaporized="">
        <emissions CO_abs="13278.613009" CO2_abs="420262.327798" HC_abs="70.313307" PMx_abs="8.593063" NOx_abs="179.607829" fuel_abs="134047.355480" electricity_abs="0"/>
    </tripinfo>
    <tripinfo id="veh5.6" depart="54.00" departLane="-1178016910_0" departPos="5.10" departSpeed="6.28" departDelay="10.27" arrival="166.00" arrivalLane="102688631#3_0" arrivalPos="24.54" arrivalSpeed="11.09" duration="112.00" routeLength="420.90" waitingTime="57.00" waitingCount="1" stopTime="0.00" timeLoss="74.89" rerouteNo="1" devices="tripinfo_veh5.6 routing_veh5.6 emissions_veh5.6 fcd_veh5.6" vType="veh_passenger" speedFactor="1.00" vaporized="">
        <emissions CO_abs="12429.896311" CO2_abs="294345.763665" HC_abs="63.454853" PMx_abs="6.166108" NOx_abs="127.317509" fuel_abs="93886.643287" electricity_abs="0"/>
    </tripinfo>
    <tripinfo id="veh0.13" depart="39.00" departLane="1288011209_1" departPos="5.10" departSpeed="0.00" departDelay="39.00" arrival="167.00" arrivalLane="-101966393#1_0" arrivalPos="31.09" arrivalSpeed="13.22" duration="128.00" routeLength="650.14" waitingTime="58.00" waitingCount="1" stopTime="0.00" timeLoss="91.77" rerouteNo="1" devices="tripinfo_veh0.13 routing_veh0.13 emissions_veh0.13 fcd_veh0.13" vType="veh_passenger" speedFactor="1.12" vaporized="">
        <emissions CO_abs="15163.008540" CO2_abs="438599.329491" HC_abs="79.447932" PMx_abs="9.612769" NOx_abs="192.239188" fuel_abs="139896.201467" electricity_abs="0"/>
    </tripinfo>
    <tripinfo id="veh3.2" depart="33.00" departLane="52087627#2_0" departPos="5.10" departSpeed="0.00" departDelay="6.76" arrival="167.00" arrivalLane="-101966494_0" arrivalPos="84.99" arrivalSpeed="13.89" duration="134.00" routeLength="823.23" waitingTime="48.00" waitingCount="2" stopTime="0.00" timeLoss="77.80" rerouteNo="1" devices="tripinfo_veh3.2 routing_veh3.2 emissions_veh3.2 fcd_veh3.2" vType="veh_passenger" speedFactor="1.09" vaporized="">
        <emissions CO_abs="13828.062569" CO2_abs="438014.005027" HC_abs="73.328202" PMx_abs="9.264983" NOx_abs="189.104705" fuel_abs="139709.103916" electricity_abs="0"/>
    </tripinfo>
    <tripinfo id="veh1.14" depart="51.00" departLane="-52155743#2_0" departPos="5.10" departSpeed="0.00" departDelay="42.25" arrival="168.00" arrivalLane="-1124102312_0" arrivalPos="10.76" arrivalSpeed="10.73" duration="117.00" routeLength="1292.35" waitingTime="0.00" waitingCount="0" stopTime="0.00" timeLoss="34.43" rerouteNo="1" devices="tripinfo_veh1.14 routing_veh1.14 emissions_veh1.14 fcd_veh1.14" vType="veh_passenger" speedFactor="0.99" vaporized="">
        <emissions CO_abs="7389.883593" CO2_abs="459451.576313" HC_abs="44.586252" PMx_abs="8.817333" NOx_abs="191.911015" fuel_abs="146543.394687" electricity_abs="0"/>
    </tripinfo>
    <tripinfo id="veh5.7" depart="56.00" departLane="-1178016910_0" departPos="5.10" departSpeed="6.79" departDelay="12.27" arrival="168.00" arrivalLane="102688631#3_0" arrivalPos="24.54" arrivalSpeed="10.51" duration="112.00" routeLength="420.90" waitingTime="57.00" waitingCount="2" stopTime="0.00" timeLoss="76.40" rerouteNo="1" devices="tripinfo_veh5.7 routing_veh5.7 emissions_veh5.7 fcd_veh5.7" vType="veh_passenger" speedFactor="1.04" vaporized="">
        <emissions CO_abs="12162.927657" CO2_abs="285707.146785" HC_abs="62.034863" PMx_abs="6.027464" NOx_abs="123.784586" fuel_abs="91131.229802" electricity_abs="0"/>
    </tripinfo>
    <tripinfo id="veh0.14" depart="42.00" departLane="1288011209_1" departPos="5.10" departSpeed="0.00" departDelay="42.00" arrival="170.00" arrivalLane="-101966393#1_0" arrivalPos="31.09" arrivalSpeed="12.44" duration="128.00" routeLength="650.14" waitingTime="56.00" waitingCount="1" stopTime="0.00" timeLoss="87.86" rerouteNo="1" devices="tripinfo_veh0.14 routing_veh0.14 emissions_veh0.14 fcd_veh0.14" vType="veh_passenger" speedFactor="0.99" vaporized="">
        <emissions CO_abs="15143.411630" CO2_abs="437983.392590" HC_abs="79.356590" PMx_abs="9.666320" NOx_abs="192.427773" fuel_abs="139699.664552" electricity_abs="0"/>
    </tripinfo>
    <tripinfo id="veh1.15" depart="54.00" departLane="-52155743#2_0" departPos="5.10" departSpeed="0.00" departDelay="45.25" arrival="170.00" arrivalLane="-1124102312_0" arrivalPos="10.76" arrivalSpeed="10.37" duration="116.00" routeLength="1292.35" waitingTime="0.00" waitingCount="0" stopTime="0.00" timeLoss="34.90" rerouteNo="1" devices="tripinfo_veh1.15 routing_veh1.15 emissions_veh1.15 fcd_veh1.15" vType="veh_passenger" speedFactor="1.02" vaporized="">